ITEM: TIMESTEP
0
ITEM: NUMBER OF ATOMS
4781
ITEM: BOX BOUNDS pp pp pp
0.0000000000000000e+00 2.0000000000000000e+01
0.0000000000000000e+00 2.0000000000000000e+01
0.0000000000000000e+00 2.0000000000000000e+01
ITEM: ATOMS id type x y z vx vy vz
1 1 10 10 10 0 0 0
2 2 17.0389 13.2457 19.7929 -0.440033 0.533494 -0.456848
3 2 18.8887 2.5828 9.05493 0.114734 -0.408734 0.443862
4 2 6.15842 4.62128 9.84006 0.546007 -0.326805 -0.0298071
5 2 1.89706 3.95858 11.8913 0.180522 0.26318 0.131084
6 2 17.9191 6.17784 10.997 -0.303342 0.313994 -0.332132
7 2 6.57347 0.379561 19.2791 -0.0533297 -0.115737 0.354754
8 2 3.19195 7.0449 3.5859 -0.381082 0.0911439 0.389919
9 2 8.15173 6.04746 19.6077 -0.170593 -0.514727 0.192808
10 2 5.92467 15.9049 13.7664 -0.104858 0.369313 0.545041
11 2 11.8134 8.46405 15.2919 -0.241066 -0.0441384 0.214867
12 2 11.4914 16.1479 18.3776 -0.251933 0.0195356 0.366505
13 2 12.7659 16.9694 5.32127 0.184767 0.487841 0.307397
14 2 14.5909 10.0207 18.5859 0.191875 -0.382318 0.2249
15 2 13.8763 18.1582 4.77036 -0.131909 -0.235344 -0.0429087
16 2 15.4606 6.83191 3.91307 -0.107392 0.440903 0.252164
17 2 6.96878 4.36521 6.1567 -0.315046 0.540387 0.517594
18 2 15.6863 18.8528 18.3483 0.155691 -0.229294 -0.116451
19 2 19.3828 7.48257 19.5321 0.179645 -0.251627 -0.185579
20 2 16.5863 6.67497 6.24553 0.266439 0.0694506 0.12266
21 2 8.58012 6.07833 18.5344 0.340969 -0.031737 -0.325032
22 2 8.44448 6.34462 14.0716 0.0207517 -0.101181 -0.0709326
23 2 0.868674 19.7968 4.80646 0.447171 0.450626 -0.445256
24 2 2.23419 9.99322 16.0676 0.198451 -0.36467 0.327492
25 2 7.33373 17.9661 16.118 -0.142877 0.321444 0.155265
26 2 15.6137 19.4554 7.52901 0.199799 0.402848 -0.394232
27 2 0.0955423 5.77907 8.82041 -0.00444525 -0.174561 -0.33254
28 2 4.67192 0.969457 13.6643 -0.340858 -0.0126218 0.376946
29 2 16.1553 1.71322 14.1385 -0.480936 0.164243 0.300023
30 2 6.1298 3.57725 2.82998 -0.114464 -0.258714 -0.038357
31 2 3.4589 13.752 9.37208 -0.19217 0.0788933 0.183529
32 2 16.6318 11.4236 17.0298 0.38548 -0.290464 0.255707
33 2 19.051 10.1831 8.16714 0.153634 0.218848 0.117957
34 2 5.20265 0.909467 5.40694 0.0696512 0.0921941 0.535505
35 2 0.60433 16.9708 7.72159 0.31623 -0.066338 0.191051
36 2 16.7867 13.3497 8.64752 -0.106514 -0.117776 -0.000187043
37 2 18.9525 14.3829 13.9891 0.194387 0.251253 -0.11447
38 2 14.8987 1.83284 4.53212 -0.440137 -0.106133 -0.149454
39 2 11.2749 17.1287 1.93173 0.20139 -0.200322 -0.0463919
40 2 6.59812 14.6061 5.05363 0.431813 0.529282 -0.135883
41 2 16.304 0.923215 16.4711 -0.368582 0.109978 -0.342255
42 2 9.76488 18.3316 19.6319 0.493498 0.0781541 -0.205615
43 2 13.9682 4.19608 3.56178 0.511033 0.477757 0.400604
44 2 2.91453 4.57635 14.7687 -0.0169238 0.163748 -0.355719
45 2 17.5879 19.4686 8.67466 -0.411534 0.311728 -0.112259
46 2 14.9755 12.4536 7.1001 -0.474616 0.257 0.191152
47 2 11.4605 16.8388 8.92149 0.507989 -0.35063 -0.0277798
48 2 3.45017 7.01882 5.25882 0.336644 -0.504741 -0.466634
49 2 4.91235 1.90626 18.5131 -0.233758 0.230709 0.338758
50 2 9.60858 11.3734 12.2911 -0.0709606 0.0595656 0.286265
51 2 15.78 15.0683 13.697 -0.483685 -0.0726961 0.550913
52 2 5.3986 14.2707 7.5785 -0.0215615 -0.102493 -0.253984
53 2 11.932 1.11401 3.22526 0.484877 -0.396253 0.140523
54 2 6.88059 2.0166 12.9469 -0.305727 -0.374142 -0.215056
55 2 18.1112 14.9789 10.0619 0.47432 0.507753 0.180791
56 2 2.00263 18.2289 13.0298 0.334524 -0.0387439 0.0724605
57 2 12.6667 9.89643 9.3747 0.179511 -0.320194 -0.524983
58 2 0.605084 9.6401 1.09304 0.479692 -0.0146508 0.192147
59 2 10.6822 16.1833 12.2514 -0.281998 0.190602 0.209332
60 2 10.0833 10.2077 0.192772 -0.291002 -0.157523 0.468966
61 2 19.9204 2.69279 17.6952 0.159947 0.187137 -0.0273341
62 2 2.498 3.83098 7.26425 0.168077 0.0677635 0.212863
63 2 10.2929 13.2791 1.67657 -0.0200865 -0.475511 -0.434521
64 2 18.1278 14.1787 0.685194 0.0920178 -0.358018 0.535599
65 2 16.0603 5.99839 15.0214 -0.288833 0.187953 -0.537187
66 2 4.5659 19.1584 15.8669 -0.0288443 0.0331224 0.0547417
67 2 15.6797 8.59252 14.5276 -0.0279054 0.496672 -0.0743209
68 2 4.92217 6.82899 14.8613 0.392873 0.329418 -0.393947
69 2 13.8816 8.00836 16.4549 0.416981 -0.386227 0.173447
70 2 17.0258 12.1524 6.21615 0.530876 0.291564 0.161118
71 2 14.7699 17.259 11.8068 0.0900316 0.175888 0.179518
72 2 17.3157 4.56304 10.9388 -0.287515 0.469442 -0.401576
73 2 7.87739 15.2807 2.57272 0.204015 0.149656 0.222117
74 2 19.6798 17.9625 16.4805 0.150937 -0.246434 -0.441207
75 2 7.14503 6.45189 16.8317 0.416061 -0.539068 0.280826
76 2 11.1251 19.2625 5.08129 -0.00508596 -0.00213547 0.471965
77 2 1.22021 8.01327 19.0218 0.233357 -0.135878 -0.0759338
78 2 19.6446 7.40476 11.7239 -0.45679 0.0831398 0.438304
79 2 3.88181 1.64128 4.98075 0.144289 -0.381767 -0.361267
80 2 11.4603 12.9572 11.4401 0.4288 0.227203 0.497161
81 2 13.4346 14.8994 14.0197 0.292566 0.459383 0.13572
82 2 5.76314 1.0847 10.6007 -0.0657177 -0.443415 -0.389363
83 2 6.03615 9.49529 7.31306 -0.230182 0.169654 0.446694
84 2 10.5661 4.16281 4.32998 0.00596042 -0.340592 0.195374
85 2 13.9396 2.28787 12.1491 0.345571 -0.355622 0.315809
86 2 10.5367 10.2222 4.09108 0.428937 0.333507 0.494151
87 2 18.8273 10.0479 14.4654 0.0275127 -0.253962 -0.0374692
88 2 19.5438 13.4676 9.68879 0.505974 -0.309493 -0.0957135
89 2 19.5154 15.5098 13.2901 -0.291227 0.435615 0.00926235
90 2 6.48 9.39622 2.20322 0.36753 -0.00677531 0.170548
91 2 9.55829 6.21597 11.7484 -0.055753 -0.362727 0.162753
92 2 15.7805 2.81614 10.8457 0.225081 -0.277878 -0.476516
93 2 4.44336 19.5553 5.83285 -0.0171242 0.0773029 -0.288894
94 2 12.7681 13.4023 12.1404 0.170705 0.484976 0.300533
95 2 3.15051 10.5959 4.66351 -0.28675 0.193884 -0.424367
96 2 19.5429 17.4329 15.0684 0.0752749 0.518451 0.552289
97 2 15.3313 13.1195 19.7741 0.126561 0.335911 0.42301
98 2 2.89905 4.38652 4.1713 0.193865 0.229001 0.0817166
99 2 7.08201 7.41076 12.6921 0.386447 -0.452732 -0.522127
100 2 15.5174 1.01502 19.5057 0.342744 0.270155 0.281822
101 2 12.2455 9.79919 14.9748 0.335578 0.17406 0.0906169
102 2 0.724187 11.417 5.76414 0.0828025 0.119551 -0.282862
103 2 17.886 10.6628 9.31762 -0.193816 -0.231393 -0.370179
104 2 1.2525 10.7076 3.38893 0.535039 0.232415 -0.535425
105 2 17.6631 3.94956 0.29176 0.0412284 0.505909 -0.180636
106 2 3.60916 19.069 12.8276 0.209018 -0.0063482 -0.309643
107 2 13.3886 2.11508 8.12693 0.456879 -0.497768 -0.339383
108 2 9.23491 11.1171 5.70208 -0.479029 0.500622 -0.417167
109 2 14.85 3.93061 1.70594 -0.351164 -0.367122 -0.398814
110 2 11.6978 4.78791 10.3294 -0.434185 0.359643 -0.058872
111 2 6.63008 11.8258 16.1072 -0.351153 -0.185883 -0.25787
112 2 13.2875 2.52774 3.70103 -0.278551 0.128454 0.54435
113 2 3.1622 7.10942 8.03204 0.185101 -0.463402 -0.42133
114 2 14.4747 16.9794 12.8754 -0.29198 -0.189012 -0.32548
115 2 16.5743 3.91519 2.56828 0.14892 -0.230891 0.402838
116 2 5.04063 17.8616 19.1953 0.33052 0.50496 0.27393
117 2 15.8749 9.24075 9.34684 0.0830664 0.180118 0.165201
118 2 12.2656 7.92151 16.7744 -0.207623 -0.336143 -0.514226
119 2 7.23477 14.7205 7.41137 -0.333948 0.14555 0.137309
120 2 2.8546 17.3353 14.5259 0.371016 -0.501617 -0.46785
121 2 16.702 10.5033 8.30264 0.103821 -0.0177993 -0.208743
122 2 2.40891 6.55904 17.8 0.458613 0.191922 0.526861
123 2 4.48952 15.3337 12.8219 -0.546472 0.450392 -0.00705227
124 2 17.8195 13.138 10.6408 -0.310201 -0.0725136 0.335453
125 2 19.09 5.13834 0.0443574 0.174924 0.264443 -0.521708
126 2 5.51427 18.2546 4.60684 -0.264081 0.44105 0.532874
127 2 7.1946 19.5593 13.9035 -0.141177 0.460456 -0.43001
128 2 15.8343 6.2526 7.52778 0.423519 0.0805893 0.241478
129 2 19.4746 10.0149 19.9175 -0.493274 -0.412022 -0.111188
130 2 13.3043 5.85232 0.000178525 0.015346 -0.145929 -0.525829
131 2 3.00047 8.95722 3.96842 0.496391 -0.535268 -0.404852
132 2 17.2876 12.3035 4.57285 -0.16441 -0.527512 -0.23377
133 2 15.965 3.15515 8.65607 -0.0391495 -0.300433 0.0901711
134 2 2.56245 7.02647 13.8487 0.249281 0.536955 -0.270566
135 2 15.4944 14.2557 16.1216 -0.309712 0.480072 -0.0630264
136 2 16.4601 5.25087 11.3306 -0.151883 -0.0534904 -0.509402
137 2 13.8922 5.97702 15.7729 -0.224812 -0.383301 0.10047
138 2 14.9225 1.86534 10.7433 0.483757 0.475545 0.42688
139 2 3.46248 13.9548 17.4998 -0.394499 -0.0345163 0.00854851
140 2 19.4518 5.83343 2.4501 0.405059 -0.541564 -0.0923008
141 2 18.8 11.4845 19.2287 0.173851 -0.250274 -0.420469
142 2 16.9453 19.0729 18.4376 -0.0448956 0.499112 0.46578
143 2 0.974157 12.6521 3.91287 0.223853 -0.139126 0.0326968
144 2 3.53958 9.76796 10.1287 0.359243 -0.329732 0.00182875
145 2 13.5444 1.56002 19.1912 0.157137 0.0108242 -0.531654
146 2 6.3138 16.1182 19.019 -0.0378724 0.376749 -0.304934
147 2 11.5471 11.4047 18.7679 -0.26325 0.191718 0.376657
148 2 12.8041 17.9624 13.7844 0.143577 -0.321007 0.047069
149 2 15.0078 15.5305 1.0343 0.119167 -0.28957 -0.0495572
150 2 3.46714 12.202 19.1519 -0.250971 -0.21317 -0.443983
151 2 5.90254 3.98739 16.013 -0.292839 -0.397376 -0.12315
152 2 10.849 18.8529 0.781489 0.284644 -0.288431 0.50084
153 2 14.4812 5.17724 13.8581 -0.247431 0.187129 -0.175564
154 2 13.9205 1.086 12.4167 0.112661 -0.242665 0.549368
155 2 19.2404 12.8947 1.19768 0.271327 0.178235 0.233582
156 2 9.33784 1.01913 8.59657 0.281171 0.407755 0.0227762
157 2 2.5777 3.35931 19.9934 -0.074899 -0.486899 -0.363343
158 2 8.58537 14.3556 13.7543 0.542483 -0.485874 0.448562
159 2 8.45196 12.1616 0.815271 -0.320014 0.208597 -0.411661
160 2 2.25249 17.6636 12.2258 0.276928 0.220333 -0.0902536
161 2 18.872 1.12527 12.4105 -0.43057 -0.152267 0.178872
162 2 3.52581 18.349 10.8558 -0.195673 0.286943 0.170793
163 2 13.9877 11.5982 10.1607 -0.309164 -0.163696 -0.437435
164 2 11.479 7.27513 13.1648 0.357708 0.115205 -0.0276128
165 2 1.02138 6.30762 12.1484 -0.138986 0.0810695 -0.441172
166 2 17.3801 7.30804 6.20815 -0.0918651 -0.080331 0.239612
167 2 0.436506 16.3557 10.9356 -0.120205 -0.460299 0.309055
168 2 14.7213 1.14665 11.6728 -0.380204 -0.481398 0.181682
169 2 4.67576 5.50742 3.20366 -0.0167571 -0.316515 0.0529119
170 2 3.87527 11.6041 9.98701 -0.148086 0.311695 0.422348
171 2 11.7513 3.83237 10.6355 0.0204153 -0.285829 0.474554
172 2 11.0666 17.0043 11.8735 -0.0155596 0.11515 0.138326
173 2 18.3075 14.4801 6.25903 -0.0372444 -0.0100615 -0.356271
174 2 6.13975 10.717 1.20281 0.157661 0.0706063 -0.147837
175 2 15.6076 16.7963 15.8389 0.0306476 -0.0824166 0.197718
176 2 4.63588 15.3066 18.3459 0.359194 -0.0637124 -0.537929
177 2 19.5081 12.975 10.864 -0.46462 -0.229501 -0.300212
178 2 10.8562 0.221735 6.70792 0.326379 -0.166636 0.470436
179 2 0.0240766 4.65507 17.6904 -0.305069 -0.258165 0.429277
180 2 18.9075 17.6594 2.05284 0.494038 0.406823 -0.31455
181 2 15.2664 2.11331 18.477 0.0525609 -0.494052 -0.238109
182 2 3.58604 10.5782 8.02329 0.338966 0.231115 -0.493678
183 2 7.48175 5.81157 15.0592 0.365095 -0.443242 0.341592
184 2 19.8725 17.5262 3.68087 0.512588 0.351267 0.310069
185 2 4.3496 3.67687 17.132 0.23755 0.310577 0.225087
186 2 18.2296 5.26184 15.7066 -0.256732 0.319441 0.41411
187 2 0.5666 2.83889 13.1758 0.512896 0.0652562 -0.35146
188 2 5.33159 8.06461 1.92551 0.0414865 0.467551 -0.450367
189 2 2.12188 2.47237 13.1503 -0.3609 0.124159 -0.519219
190 2 16.4439 12.5515 13.3634 -0.0132907 -0.0446472 0.41642
191 2 18.9514 16.7213 15.2934 -0.0522793 0.0324523 -0.266201
192 2 15.4802 15.2531 19.3628 -0.256523 -0.534638 0.345855
193 2 11.985 11.8417 3.5854 -0.0410629 0.36407 -0.0556822
194 2 19.7655 18.0459 18.2807 -0.349828 0.200413 -0.0976121
195 2 3.96231 14.4993 10.2399 -0.473323 0.111087 -0.304698
196 2 1.62538 17.7653 2.02122 0.430071 -0.302679 -0.455466
197 2 10.6657 18.3318 2.9583 0.37454 -0.356137 0.420876
198 2 0.158956 11.5701 19.0409 0.445006 0.170526 -0.214798
199 2 19.6458 6.60973 9.67149 0.438265 -0.436303 -0.107036
200 2 8.66984 14.027 11.8493 -0.216711 0.0956473 -0.507095
201 2 11.0284 14.8 3.99151 0.255173 0.0139572 -0.392836
202 2 5.29893 19.1029 2.09766 0.484594 0.313622 -0.0162699
203 2 15.3614 18.9019 4.5787 0.130001 0.169298 -0.0745899
204 2 16.4613 5.49236 10.1429 0.248819 0.435582 0.547766
205 2 11.0491 1.98622 2.33435 -0.395975 0.326128 0.110198
206 2 13.4452 14.2971 12.1379 -0.131718 -0.305666 -0.321795
207 2 1.34283 8.88538 16.5929 -0.276328 0.30418 -0.0540447
208 2 16.4032 8.12739 16.991 -0.17992 0.283117 0.416227
209 2 7.69594 5.68848 6.30374 -0.0227507 -0.395467 0.226853
210 2 6.91823 14.6388 13.8534 -0.129897 -0.34125 0.0777277
211 2 13.2996 6.65354 5.98382 0.084313 0.343434 -0.0611325
212 2 10.0546 8.12022 16.5648 -0.0490352 -0.147155 -0.334672
213 2 4.18071 5.25059 6.6478 -0.0761616 0.174328 0.21525
214 2 9.57203 17.0885 7.05295 -0.381898 -0.508016 0.291037
215 2 18.9736 9.82579 2.06768 -0.157918 0.27011 -0.470371
216 2 11.5478 3.74328 13.3525 0.404506 0.0104628 -0.0415914
217 2 14.8187 18.2414 2.64491 0.150668 -0.394367 0.117234
218 2 12.9234 3.24974 18.415 -0.0527372 -0.00466562 -0.476791
219 2 1.4228 12.9402 5.51714 -0.274583 0.0888657 0.393643
220 2 6.58976 14.0941 0.328152 0.0553976 0.13684 0.351656
221 2 15.2551 12.3957 14.6315 0.0803052 -0.276771 -0.471394
222 2 10.9797 15.2873 13.3193 -0.37064 0.535678 0.154141
223 2 17.2586 5.73795 17.6532 -0.0995898 0.288501 0.0965111
224 2 17.972 15.2805 18.8508 -0.415132 0.00943183 0.135929
225 2 5.56924 2.29552 0.823726 0.15279 0.263616 -0.204773
226 2 4.3576 18.2212 4.29406 0.429154 -0.386351 0.267066
227 2 2.97224 14.3634 5.14182 -0.402349 0.417737 0.396653
228 2 18.5318 3.18959 7.49998 0.317334 -0.112344 0.480713
229 2 12.0807 0.691845 7.83388 -0.435203 -0.331126 -0.438069
230 2 3.66483 14.835 11.0664 -0.445524 0.152916 0.302851
231 2 15.1364 17.3496 15.0889 0.383242 0.398057 0.047421
232 2 19.465 9.09423 6.73263 -0.529546 0.471406 -0.214335
233 2 15.3689 4.5488 11.6909 -0.530518 -0.545536 -0.111719
234 2 8.72426 8.60806 15.7109 -0.142505 0.0147948 -0.537188
235 2 12.9264 13.8745 7.96688 -0.0509619 0.293399 0.351735
236 2 19.3373 2.14552 19.737 0.307662 0.345934 0.39441
237 2 19.7073 1.25324 3.17192 -0.171943 -0.225901 0.0189445
238 2 10.4703 14.6992 10.1497 0.075899 0.0668724 0.553655
239 2 5.39406 18.0093 2.32479 0.111306 -0.036401 0.0611142
240 2 12.7757 0.84453 14.0212 -0.145853 -0.457435 0.305978
241 2 13.5355 11.7491 6.52735 0.409829 -0.245544 0.291779
242 2 14.215 11.8292 12.5533 0.276317 -0.207748 -0.125218
243 2 3.2769 14.793 6.0475 0.534877 -0.308833 0.0562607
244 2 0.308589 6.44897 7.91756 0.336543 -0.0208411 0.089026
245 2 10.4722 6.44722 18.4488 -0.397541 0.263141 -0.53031
246 2 8.60776 10.6155 13.934 -0.424014 -0.463566 0.111149
247 2 9.47339 19.212 15.8997 0.521958 0.292893 -0.491196
248 2 6.57767 10.8692 18.0448 0.505572 -0.492753 -0.281825
249 2 18.5353 2.01509 7.60775 -0.262461 0.316785 -0.457407
250 2 3.47604 1.85142 16.8758 -0.525414 -0.101311 -0.0814705
251 2 11.2772 15.7169 14.2577 -0.514123 0.376428 -0.231827
252 2 8.86342 7.42757 15.2284 -0.209557 -0.0178309 0.354387
253 2 3.33053 16.2852 6.11221 0.026265 -0.43698 0.551609
254 2 7.86571 19.0428 11.9651 -0.361415 0.208351 -0.163028
255 2 17.1674 12.0737 2.73562 -0.357644 0.133686 -0.142764
256 2 17.6446 12.5676 3.65287 -0.0404159 0.296829 0.0262316
257 2 13.8029 5.67127 17.0004 0.0122531 0.387367 -0.177833
258 2 6.27196 12.7828 19.9968 0.262533 0.0784768 -0.252409
259 2 5.81523 16.5391 12.3365 -0.400837 -0.433965 -0.198726
260 2 0.0226465 0.61919 6.72774 0.312336 0.128277 -0.238701
261 2 13.1859 15.1738 6.43569 0.234557 0.336622 0.341768
262 2 4.59196 17.0568 13.4663 0.181163 0.0923221 0.498802
263 2 7.76134 4.83286 5.8544 0.518252 0.363917 -0.430231
264 2 14.8695 11.2003 2.68551 -0.0014028 -0.462242 0.470566
265 2 15.4202 7.12645 14.3039 -0.299309 0.267588 -0.183361
266 2 5.27415 2.66991 13.1899 0.360725 0.503981 0.23661
267 2 1.17502 8.57996 3.44179 -0.248836 -0.451501 0.468461
268 2 6.08438 0.123537 16.2882 0.425514 -0.295368 -0.11793
269 2 15.4446 17.898 11.4065 0.485462 -0.408682 0.217598
270 2 8.86065 0.860989 10.6504 -0.303781 -0.497702 -0.322782
271 2 1.88769 6.34631 2.36029 -0.44667 -0.508617 0.0488184
272 2 9.46543 5.45809 14.0543 -0.0186717 0.326505 -0.123916
273 2 10.7245 6.73057 0.714643 -0.543425 0.245195 -0.184782
274 2 11.0074 1.99685 0.978117 -0.546475 0.401044 -0.0642436
275 2 19.2129 10.7089 5.01115 0.178341 -0.292108 -0.0338995
276 2 2.37193 4.9974 11.3572 0.326137 0.135206 0.247039
277 2 0.966643 6.37144 4.8706 -0.0290567 -0.253871 0.398878
278 2 0.0964757 1.46734 1.57826 0.519048 -0.473118 0.402511
279 2 5.76447 3.5049 6.9024 0.314763 0.450157 0.423205
280 2 8.60264 4.52821 5.61807 0.201858 -0.00107731 -0.342932
281 2 2.94716 12.8749 8.08439 0.0463406 -0.00494665 0.270238
282 2 14.3534 17.0269 10.5505 0.380944 0.055769 -0.0662816
283 2 2.61776 16.6492 2.81611 -0.157479 -0.0187385 0.417986
284 2 10.3732 2.19171 16.1059 0.00308689 -0.496216 -0.508626
285 2 12.5379 4.2823 12.6466 -0.315928 -0.0516561 -0.314221
286 2 11.5864 13.2989 14.6789 0.112775 -0.500303 -0.274875
287 2 7.90645 3.68746 15.0724 -0.533121 -0.542285 -0.164871
288 2 1.38085 7.86726 5.106 0.390832 -0.0462016 0.5494
289 2 16.4764 18.8992 19.57 -0.283796 -0.496819 0.305567
290 2 13.5343 11.1477 19.6076 0.0790419 0.372989 -0.0340452
291 2 5.35569 13.1077 1.25947 0.066543 0.36854 -0.41403
292 2 7.94885 16.2859 16.9591 -0.141378 0.357956 0.0379587
293 2 11.3478 2.68302 13.5289 0.174274 0.287757 -0.372608
294 2 0.592394 16.3684 3.75102 0.188601 0.390663 0.508141
295 2 3.41028 16.6283 11.9251 -0.0680926 0.122301 -0.0184026
296 2 4.6722 5.59797 5.11222 0.389482 0.239713 -0.415323
297 2 1.14282 7.40124 12.6827 1.31269e-05 0.359331 0.160067
298 2 18.5926 5.76328 3.42354 -0.0566849 0.386012 0.0156979
299 2 19.3533 11.1306 12.5007 0.215535 0.115218 0.192064
300 2 19.4743 4.32933 2.97592 0.519606 0.140742 0.29092
301 2 16.262 14.8775 5.91289 0.06511 0.355034 0.16262
302 2 17.91 12.9253 15.9062 0.179916 -0.0781431 -0.187392
303 2 0.747312 0.0698162 13.4007 0.435764 0.204623 -0.457315
304 2 4.82305 1.02402 10.6672 -0.0742015 0.294257 -0.539581
305 2 3.07004 18.1221 17.9098 0.221113 -0.238667 -0.0934922
306 2 9.59912 12.3462 3.35866 -0.157261 0.37355 -0.451115
307 2 8.99623 19.5777 3.09312 0.198633 0.49619 -0.505462
308 2 6.10793 15.896 3.85057 0.354208 0.383014 -0.0379154
309 2 16.5432 2.28423 11.1119 -0.429317 0.119513 0.159499
310 2 17.85 4.7628 8.40422 0.239299 0.170922 -0.128212
311 2 9.76408 4.87043 17.2671 -0.537139 -0.228842 -0.163248
312 2 7.92617 15.1422 14.5688 0.313295 -0.159341 0.535231
313 2 17.4932 8.77736 1.03298 0.0885353 0.191779 0.309147
314 2 9.20382 8.67756 3.76144 0.0712388 0.517582 0.162677
315 2 18.5175 3.10022 5.40386 0.0440321 -0.510697 0.0948551
316 2 2.72385 19.7678 17.9471 0.199838 -0.0306767 -0.0100665
317 2 17.4464 1.24504 5.33218 0.451763 -0.0588312 0.538095
318 2 18.0072 7.53157 3.1232 0.0830686 0.216998 -0.345461
319 2 11.6 0.64867 2.19421 0.221394 0.108186 0.173399
320 2 18.032 3.09973 17.1054 -0.271349 -0.268932 -0.00455564
321 2 10.5763 16.3326 2.03925 0.0751961 0.288646 0.345547
322 2 13.6288 19.772 8.11945 0.24202 -0.0530883 -0.315876
323 2 3.60979 9.68 11.7608 -0.35182 -0.444035 0.133424
324 2 3.08443 19.9639 13.9474 -0.375698 -0.237563 -0.12793
325 2 14.0997 14.2078 10.4852 -0.187562 -0.149021 0.0317348
326 2 16.415 7.60416 3.19688 -0.492489 -0.347373 0.00591085
327 2 9.91488 19.3479 0.442107 -0.162567 -0.183707 0.214746
328 2 10.4883 17.467 8.40665 -0.110662 0.188922 0.43099
329 2 10.6464 13.5528 2.56442 -0.249298 -0.543412 -0.519267
330 2 0.274293 10.0496 2.91204 0.277852 0.435143 -0.264401
331 2 19.2486 10.8435 7.29753 0.450814 0.416054 -0.52968
332 2 12.2294 19.2918 18.1112 0.325804 0.00996623 0.364928
333 2 15.7221 0.890268 2.73246 -0.0653934 -0.463947 0.25937
334 2 4.53265 0.30668 14.367 0.43525 0.314255 -0.321289
335 2 8.33383 6.73198 4.38378 -0.52423 0.0891578 -0.16719
336 2 18.1094 4.06065 7.39909 -0.283715 -0.226418 0.0972708
337 2 16.5136 4.59696 1.10307 0.318978 0.171483 0.54015
338 2 19.3579 7.53165 4.38857 -0.388313 -0.0103611 0.0787064
339 2 18.6296 6.91716 16.7475 0.122147 -0.536621 -0.155638
340 2 15.8389 4.42097 3.27896 0.215545 0.276634 -0.224954
341 2 9.42375 4.9755 3.18666 0.427624 0.155662 0.504478
342 2 18.2447 19.011 18.5966 -0.372939 0.177858 0.467627
343 2 13.2286 13.3572 13.688 -0.458434 -0.192167 0.247686
344 2 14.5168 4.60669 4.58982 -0.0915534 -0.312072 0.329176
345 2 1.15269 13.3401 7.89734 -0.28724 -0.385889 0.376214
346 2 10.2598 16.4877 8.8147 0.350771 -0.492022 -0.0464251
347 2 8.69089 7.84323 1.11398 -0.126512 -0.33498 0.422727
348 2 2.66739 10.867 2.46923 -0.175149 -0.497184 -0.358431
349 2 0.36547 2.46252 7.56808 -0.0504341 0.411852 -0.0336747
350 2 16.7217 0.974051 10.8683 -0.271882 -0.47351 0.373115
351 2 3.82019 5.97455 14.2299 -0.306231 -0.0987181 -0.259933
352 2 12.3449 1.07699 0.913383 0.0573853 -0.371463 -0.0603268
353 2 11.2255 6.16754 17.783 0.363355 -0.160127 0.45868
354 2 19.0925 7.82821 8.69432 0.149197 0.0508772 -0.226031
355 2 5.41682 0.437165 7.43538 -0.173123 -0.35596 0.103674
356 2 6.35152 10.0638 2.96541 -0.378197 0.425387 -0.133363
357 2 19.5955 0.816661 5.6297 0.41106 -0.335378 0.302678
358 2 18.406 10.2111 17.643 -0.348184 0.492726 0.349075
359 2 6.20808 19.1209 4.85355 0.454169 -0.0908151 0.181807
360 2 13.6809 15.6341 2.97404 -0.108869 -0.312552 -0.0879905
361 2 4.63357 16.4758 8.34851 0.406774 -0.170493 0.203817
362 2 13.4778 1.99946 4.90487 0.0254027 0.38723 -0.304559
363 2 16.0949 6.4766 12.2606 -0.519601 0.213669 -0.502479
364 2 3.73466 8.46414 16.7929 0.155435 -0.149707 0.541079
365 2 17.8084 6.13663 18.2999 -0.0823528 0.0559224 0.324048
366 2 6.86672 8.96219 7.53777 -0.0418547 0.185066 0.169492
367 2 7.26635 5.48545 13.9895 -0.291257 -0.0599615 0.13943
368 2 1.90467 11.83 7.30444 -0.0850148 0.173711 -0.307166
369 2 5.69999 19.7043 9.81615 0.511129 -0.093809 0.190813
370 2 19.9977 0.723366 17.6102 0.270175 0.503251 -0.00194045
371 2 14.6906 4.31294 7.61905 0.265205 0.131601 -0.174528
372 2 13.3234 6.59353 17.4184 0.0114173 -0.530763 -0.182783
373 2 10.9873 3.70172 14.8241 0.216284 -0.423404 0.0555669
374 2 8.93678 0.410535 19.8633 -0.382336 -0.200912 -0.117492
375 2 2.78453 19.5797 16.816 0.189395 -0.490076 -0.156782
376 2 6.6525 8.55669 12.231 -0.418844 -0.00498253 -0.332699
377 2 4.45121 11.46 7.92968 0.26955 -0.155562 -0.493402
378 2 14.1957 7.6877 7.22764 -0.455351 0.208672 -0.238036
379 2 15.0018 14.9122 9.13784 0.462414 -0.471184 0.076082
380 2 19.6513 19.338 13.0622 -0.223242 -0.253431 0.130109
381 2 16.5362 3.34706 13.9763 -0.281743 0.104104 0.480687
382 2 18.8807 7.88096 15.3526 0.218812 0.486066 0.0215261
383 2 11.3886 8.77871 3.74213 -0.297691 0.109809 0.0967011
384 2 14.0326 5.89642 1.16721 -0.504069 -0.229139 0.310569
385 2 17.2752 5.03179 9.36074 -0.0992342 -0.30077 -0.0885431
386 2 5.95723 3.13732 9.00458 -0.128985 -0.325678 0.317961
387 2 0.0219374 8.70135 3.61471 0.501107 -0.0414908 -0.143953
388 2 12.5134 11.9259 19.1419 -0.339752 -0.0238378 0.0517674
389 2 17.9222 18.4561 11.8527 0.311186 0.492999 -0.539077
390 2 8.78046 13.1848 16.5608 -0.0638155 -0.201389 -0.466388
391 2 18.0064 13.7905 16.967 -0.483342 0.208069 -0.528848
392 2 5.11158 10.266 1.44479 0.0798374 -0.480657 -0.495948
393 2 2.63015 4.98525 7.16741 0.520209 0.426176 0.0107734
394 2 2.70474 18.6275 12.1017 -0.494498 -0.202344 -0.118933
395 2 13.5277 0.675224 8.48211 0.0403841 0.540076 -0.332449
396 2 18.8787 13.8626 7.94116 0.0877914 -0.275773 -0.103072
397 2 7.07097 1.76928 16.3573 -0.339897 -0.277626 0.484904
398 2 17.2749 19.8858 0.63428 -0.0212096 0.342154 0.309278
399 2 0.345779 11.5026 3.89064 0.0723405 0.434413 -0.503894
400 2 9.97774 15.9253 16.4861 0.451558 -0.222486 0.521511
401 2 1.54059 12.653 18.8559 0.344532 -0.318985 0.10871
402 2 11.2692 2.12173 19.9986 0.0208775 -0.175174 0.298411
403 2 16.295 10.3318 6.85903 0.154039 0.462467 0.533683
404 2 2.02614 13.3314 0.957574 0.327445 0.238136 0.429153
405 2 13.9498 13.8314 4.2046 -0.493989 -0.390291 -0.303767
406 2 6.68808 6.52276 8.02706 -0.347961 -0.145529 -0.364747
407 2 10.7863 4.9955 19.3804 -0.0646194 0.510596 -0.180817
408 2 10.3732 2.40302 7.62622 0.447615 0.251327 0.0297419
409 2 13.8816 7.83586 17.362 -0.0711746 -0.25529 -0.489904
410 2 3.48447 3.50354 4.02623 0.34804 -0.438034 0.344388
411 2 8.90941 0.395646 9.62847 0.454821 -0.0727622 0.534953
412 2 5.62289 3.93161 18.553 -0.201256 -0.547955 -0.28369
413 2 19.9405 0.804463 0.603402 0.105933 0.465846 0.443682
414 2 1.38534 3.37028 4.34804 -0.289644 -0.317428 0.0224145
415 2 17.477 15.9709 3.62883 0.409966 -0.127065 0.3399
416 2 9.73421 2.79193 4.03608 0.526326 0.392346 0.352587
417 2 14.3999 18.495 5.51156 0.406311 -0.287116 -0.366031
418 2 12.7384 15.0308 3.09809 0.231175 0.39096 0.0235343
419 2 9.64111 18.1702 6.13596 -0.462577 0.195123 -0.378396
420 2 19.1522 11.5454 2.73264 0.293307 -0.215009 0.367746
421 2 7.45032 17.5941 4.03108 0.25992 -0.0810149 -0.313441
422 2 10.3548 13.6495 6.6381 0.0944766 0.484896 0.0409125
423 2 6.56676 7.49843 6.08387 -0.509441 0.289943 0.259103
424 2 11.621 13.6351 5.8226 0.32597 -0.48225 0.0878359
425 2 0.394662 13.0798 11.6006 0.389488 0.328594 -0.0189998
426 2 11.5899 12.022 14.2724 0.200499 0.127788 0.295651
427 2 0.440532 4.02378 7.69794 -0.279491 -0.354559 -0.404693
428 2 19.2339 3.57128 2.45022 0.321326 0.23804 -0.0797462
429 2 0.834223 0.786349 16.1641 0.01845 -0.493509 0.136114
430 2 9.28755 15.9333 10.3093 -0.00953766 -0.423949 -0.350937
431 2 8.8108 3.16931 6.63467 0.0783546 -0.237382 -0.381674
432 2 8.9171 9.62794 16.8322 -0.106449 -0.122778 0.174578
433 2 18.0572 7.54298 14.9394 -0.149896 0.526557 0.0301235
434 2 5.98806 1.26614 19.9315 -0.221374 0.504031 -0.0132692
435 2 8.943 5.03907 11.7224 0.234828 0.516023 0.222463
436 2 18.7675 4.7714 12.8381 0.485365 0.14789 0.0743634
437 2 10.0838 18.7548 12.6112 0.432181 0.151434 0.553816
438 2 16.4928 14.5019 12.7951 -0.46426 0.355181 0.447936
439 2 7.82539 1.25635 15.4215 0.099224 0.406107 -0.310304
440 2 9.89774 11.3907 4.2954 0.297438 0.295735 0.239785
441 2 12.7477 11.4331 16.8871 -0.496336 -0.455341 0.480954
442 2 1.51196 11.5795 17.2637 0.324633 0.0339251 0.417048
443 2 11.7551 7.39063 14.2745 -0.439698 -0.38998 0.539853
444 2 12.1124 13.0717 15.9192 0.0992132 0.224809 -0.364558
445 2 8.73879 12.9071 9.35249 -0.174646 0.296563 -0.0673448
446 2 7.27397 13.5314 2.69529 -0.521338 -0.538119 -0.178399
447 2 19.6843 13.2544 6.83298 -0.488056 -0.242535 0.537959
448 2 1.91403 9.14303 6.83048 -0.00517604 -0.422008 0.545
449 2 19.8061 1.64299 13.7397 0.161359 -0.149581 0.460484
450 2 2.84735 15.3862 16.3878 -0.16775 0.231385 -0.341627
451 2 10.5805 6.70465 5.10738 0.101704 0.513695 0.475364
452 2 5.40493 0.688656 14.2375 0.461719 -0.123906 -0.18743
453 2 9.5158 12.0718 11.1486 -0.194051 0.205792 -0.499179
454 2 13.7624 4.59933 0.893431 -0.176119 -0.393502 0.439593
455 2 15.8881 10.7744 5.87028 -0.0771975 0.268421 -0.409179
456 2 19.1005 2.44974 12.8189 0.426353 -0.42328 -0.0489442
457 2 7.676 10.5294 7.34145 0.205085 -0.469283 0.300178
458 2 7.69474 5.44824 8.53755 0.312282 0.327602 -0.283746
459 2 10.6582 12.0136 12.5346 0.258471 -0.36965 -0.218923
460 2 9.8103 1.74887 13.2076 0.0277985 0.172003 0.533168
461 2 0.861709 2.74046 18.8321 0.432992 -0.43932 -0.484483
462 2 10.3359 15.9111 17.6384 -0.454136 -0.160101 -0.19977
463 2 9.22994 7.63654 7.36183 0.276669 0.243844 0.0848123
464 2 17.1735 15.2758 0.517463 -0.100945 0.483822 -0.506943
465 2 17.0015 4.1862 17.5183 -0.464263 0.29841 0.343412
466 2 10.3551 17.6212 19.4348 0.467619 -0.524277 0.513781
467 2 1.15567 3.26738 14.8015 -0.467773 0.398792 0.378655
468 2 9.02885 7.83698 16.0891 -0.20659 -0.470549 -0.196039
469 2 5.01043 10.3159 18.927 -0.474649 -0.294569 0.183906
470 2 6.69471 17.9574 10.4082 0.16135 -0.294009 -0.248346
471 2 6.22285 7.43985 1.56465 0.0565716 0.174738 0.550062
472 2 17.1462 16.3449 8.26627 -0.10026 -0.0350361 0.0254972
473 2 11.177 11.5813 7.51767 -0.295913 0.461348 0.327294
474 2 9.49042 5.54832 10.5705 -0.189617 0.323414 0.455098
475 2 18.456 10.4607 13.4695 0.11119 0.204788 0.136901
476 2 1.22217 1.04837 0.0255673 0.0920504 0.189886 0.216618
477 2 9.70962 9.6116 2.23303 -0.378821 -0.199363 -0.343292
478 2 10.6073 16.9663 12.9507 -0.530532 0.299924 -0.474099
479 2 1.58932 11.671 13.7092 0.124304 -0.3848 0.0869831
480 2 9.94107 19.6253 2.89828 0.278431 0.3071 -0.212726
481 2 11.4758 14.1745 10.3183 0.252476 -0.466893 -0.00637834
482 2 19.8071 18.5465 11.6853 0.075562 -0.127203 0.198592
483 2 14.3343 17.1142 17.7226 -0.265495 -0.343207 0.0137047
484 2 17.7435 14.2277 5.4344 -0.462582 0.120234 0.245787
485 2 16.0358 14.4477 2.0166 -0.280157 0.491713 -0.269296
486 2 12.9135 17.7602 16.1002 0.241273 0.518312 0.396826
487 2 16.2123 0.862638 18.35 -0.0437783 -0.416707 -0.0785288
488 2 8.31975 10.0389 4.42621 -0.307681 -0.391583 -0.14317
489 2 11.2381 18.9479 17.1827 -0.303634 -0.217361 0.227318
490 2 4.57021 11.5859 3.389 0.0302585 -0.0579271 0.416218
491 2 18.9008 5.33538 11.7174 -0.163103 -0.434729 0.0880827
492 2 14.541 10.8799 19.0333 0.160788 0.109746 0.121466
493 2 13.0242 17.7814 12.0605 -0.0341815 0.0463076 -0.441206
494 2 1.56947 18.1357 6.20716 0.441929 -0.128065 -0.0652582
495 2 3.70983 11.1642 16.1289 -0.462362 0.533775 -0.101663
496 2 18.4864 0.351504 7.72059 0.366601 -0.299652 0.0930394
497 2 15.9943 15.6263 11.3599 0.316991 -0.398504 -0.484165
498 2 5.21944 3.1177 19.156 0.523184 0.102199 0.194091
499 2 14.7104 17.9132 6.8847 -0.419901 -0.273572 -0.316599
500 2 11.0788 1.85079 6.15585 -0.474739 0.383234 0.382031
501 2 1.33801 7.995 11.999 -0.349782 -0.116898 0.539135
502 2 6.92299 14.6509 17.2767 0.0654148 0.00755117 0.256251